 Entering Gaussian System, Link 0=g09
 Initial command:
 /home/steboss/local//g09/l1.exe /tmp/Gau-1592.inp -scrdir=/tmp/
 Entering Link 1 = /home/steboss/local//g09/l1.exe PID=      1594.
  
 Copyright (c) 1988,1990,1992,1993,1995,1998,2003,2009, Gaussian, Inc.
                  All Rights Reserved.
  
 This is part of the Gaussian(R) 09 program.  It is based on
 the Gaussian(R) 03 system (copyright 2003, Gaussian, Inc.),
 the Gaussian(R) 98 system (copyright 1998, Gaussian, Inc.),
 the Gaussian(R) 94 system (copyright 1995, Gaussian, Inc.),
 the Gaussian 92(TM) system (copyright 1992, Gaussian, Inc.),
 the Gaussian 90(TM) system (copyright 1990, Gaussian, Inc.),
 the Gaussian 88(TM) system (copyright 1988, Gaussian, Inc.),
 the Gaussian 86(TM) system (copyright 1986, Carnegie Mellon
 University), and the Gaussian 82(TM) system (copyright 1983,
 Carnegie Mellon University). Gaussian is a federally registered
 trademark of Gaussian, Inc.
  
 This software contains proprietary and confidential information,
 including trade secrets, belonging to Gaussian, Inc.
  
 This software is provided under written license and may be
 used, copied, transmitted, or stored only in accord with that
 written license.
  
 The following legend is applicable only to US Government
 contracts under FAR:
  
                    RESTRICTED RIGHTS LEGEND
  
 Use, reproduction and disclosure by the US Government is
 subject to restrictions as set forth in subparagraphs (a)
 and (c) of the Commercial Computer Software - Restricted
 Rights clause in FAR 52.227-19.
  
 Gaussian, Inc.
 340 Quinnipiac St., Bldg. 40, Wallingford CT 06492
  
  
 ---------------------------------------------------------------
 Warning -- This program may not be used in any manner that
 competes with the business of Gaussian, Inc. or will provide
 assistance to any competitor of Gaussian, Inc.  The licensee
 of this program is prohibited from giving any competitor of
 Gaussian, Inc. access to this program.  By using this program,
 the user acknowledges that Gaussian, Inc. is engaged in the
 business of creating and licensing software in the field of
 computational chemistry and represents and warrants to the
 licensee that it is not a competitor of Gaussian, Inc. and that
 it will not use this program in any manner prohibited above.
 ---------------------------------------------------------------
  

 Cite this work as:
 Gaussian 09, Revision A.02,
 M. J. Frisch, G. W. Trucks, H. B. Schlegel, G. E. Scuseria, 
 M. A. Robb, J. R. Cheeseman, G. Scalmani, V. Barone, B. Mennucci, 
 G. A. Petersson, H. Nakatsuji, M. Caricato, X. Li, H. P. Hratchian, 
 A. F. Izmaylov, J. Bloino, G. Zheng, J. L. Sonnenberg, M. Hada, 
 M. Ehara, K. Toyota, R. Fukuda, J. Hasegawa, M. Ishida, T. Nakajima, 
 Y. Honda, O. Kitao, H. Nakai, T. Vreven, J. A. Montgomery, Jr., 
 J. E. Peralta, F. Ogliaro, M. Bearpark, J. J. Heyd, E. Brothers, 
 K. N. Kudin, V. N. Staroverov, R. Kobayashi, J. Normand, 
 K. Raghavachari, A. Rendell, J. C. Burant, S. S. Iyengar, J. Tomasi, 
 M. Cossi, N. Rega, J. M. Millam, M. Klene, J. E. Knox, J. B. Cross, 
 V. Bakken, C. Adamo, J. Jaramillo, R. Gomperts, R. E. Stratmann, 
 O. Yazyev, A. J. Austin, R. Cammi, C. Pomelli, J. W. Ochterski, 
 R. L. Martin, K. Morokuma, V. G. Zakrzewski, G. A. Voth, 
 P. Salvador, J. J. Dannenberg, S. Dapprich, A. D. Daniels, 
 O. Farkas, J. B. Foresman, J. V. Ortiz, J. Cioslowski, 
 and D. J. Fox, Gaussian, Inc., Wallingford CT, 2009.
 
 ******************************************
 Gaussian 09:  EM64L-G09RevA.02 11-Jun-2009
                18-Jan-2017 
 ******************************************
 %chk=structure_330.chk
 %NProcShared=8
 Will use up to    8 processors via shared memory.
 -------------------
 #SP MP2/aug-cc-pVDZ
 -------------------
 1/38=1/1;
 2/12=2,17=6,18=5,40=1/2;
 3/5=16,7=10,11=9,16=1,25=1,30=1/1,2,3;
 4//1;
 5/5=2,38=5/2;
 8/10=1/1;
 9/16=-3/6;
 6/7=2,8=2,9=2,10=2/1;
 99/5=1,9=1/99;
 ------------------
 Phi Psi fixed scan
 ------------------
 Symbolic Z-matrix:
 Charge =  0 Multiplicity = 1
 H                    -7.0546   -0.3525    0.2519 
 C                    -6.3439   -0.7649   -0.4706 
 H                    -6.2896   -0.1017   -1.3393 
 H                    -6.732    -1.7374   -0.7903 
 C                    -5.0058   -0.9734    0.2233 
 O                    -4.8975   -1.6468    1.2446 
 N                    -3.9374   -0.3697   -0.3688 
 H                    -4.0354    0.2343   -1.1761 
 C                    -2.605    -0.4373    0.1977 
 H                    -2.6978   -0.3711    1.2892 
 C                    -1.8887   -1.7581   -0.1523 
 H                    -1.7933   -1.8602   -1.2383 
 H                    -0.8872   -1.8049    0.2893 
 H                    -2.4824   -2.5907    0.2334 
 C                    -1.8244    0.7697   -0.3429 
 O                    -2.1797    1.3675   -1.3532 
 N                    -0.6817    1.0697    0.3488 
 H                    -0.5976    0.6714    1.2766 
 C                     0.1448    2.2359    0.0391 
 H                    -0.304     2.6939   -0.8445 
 C                     0.1631    3.2489    1.193 
 H                     0.5716    2.7994    2.1066 
 H                     0.7927    4.1016    0.9234 
 H                    -0.8494    3.6086    1.4015 
 C                     1.5879    1.8725   -0.3578 
 O                     2.2589    2.6388   -1.0416 
 N                     2.0888    0.7376    0.2043 
 H                     1.4572    0.0163    0.5391 
 C                     3.4011    0.2302   -0.1537 
 H                     3.5895    0.4588   -1.2116 
 C                     4.5094    0.8862    0.6899 
 H                     4.3656    0.667     1.7528 
 H                     5.5053    0.5369    0.3943 
 H                     4.469     1.9683    0.5408 
 C                     3.3443   -1.2984    0.0351 
 O                     2.375    -1.8432    0.5624 
 N                     4.4324   -1.9771   -0.4095 
 H                     5.1725   -1.4568   -0.859 
 C                     4.5633   -3.4217   -0.3069 
 H                     3.6762   -3.796     0.2047 
 H                     4.6263   -3.883    -1.299 
 H                     5.4544   -3.6945    0.2695 
 
                          Input orientation:                          
 ---------------------------------------------------------------------
 Center     Atomic      Atomic             Coordinates (Angstroms)
 Number     Number       Type             X           Y           Z
 ---------------------------------------------------------------------
      1          1           0       -7.054600   -0.352500    0.251900
      2          6           0       -6.343900   -0.764900   -0.470600
      3          1           0       -6.289600   -0.101700   -1.339300
      4          1           0       -6.732000   -1.737400   -0.790300
      5          6           0       -5.005800   -0.973400    0.223300
      6          8           0       -4.897500   -1.646800    1.244600
      7          7           0       -3.937400   -0.369700   -0.368800
      8          1           0       -4.035400    0.234300   -1.176100
      9          6           0       -2.605000   -0.437300    0.197700
     10          1           0       -2.697800   -0.371100    1.289200
     11          6           0       -1.888700   -1.758100   -0.152300
     12          1           0       -1.793300   -1.860200   -1.238300
     13          1           0       -0.887200   -1.804900    0.289300
     14          1           0       -2.482400   -2.590700    0.233400
     15          6           0       -1.824400    0.769700   -0.342900
     16          8           0       -2.179700    1.367500   -1.353200
     17          7           0       -0.681700    1.069700    0.348800
     18          1           0       -0.597600    0.671400    1.276600
     19          6           0        0.144800    2.235900    0.039100
     20          1           0       -0.304000    2.693900   -0.844500
     21          6           0        0.163100    3.248900    1.193000
     22          1           0        0.571600    2.799400    2.106600
     23          1           0        0.792700    4.101600    0.923400
     24          1           0       -0.849400    3.608600    1.401500
     25          6           0        1.587900    1.872500   -0.357800
     26          8           0        2.258900    2.638800   -1.041600
     27          7           0        2.088800    0.737600    0.204300
     28          1           0        1.457200    0.016300    0.539100
     29          6           0        3.401100    0.230200   -0.153700
     30          1           0        3.589500    0.458800   -1.211600
     31          6           0        4.509400    0.886200    0.689900
     32          1           0        4.365600    0.667000    1.752800
     33          1           0        5.505300    0.536900    0.394300
     34          1           0        4.469000    1.968300    0.540800
     35          6           0        3.344300   -1.298400    0.035100
     36          8           0        2.375000   -1.843200    0.562400
     37          7           0        4.432400   -1.977100   -0.409500
     38          1           0        5.172500   -1.456800   -0.859000
     39          6           0        4.563300   -3.421700   -0.306900
     40          1           0        3.676200   -3.796000    0.204700
     41          1           0        4.626300   -3.883000   -1.299000
     42          1           0        5.454400   -3.694500    0.269500
 ---------------------------------------------------------------------
                    Distance matrix (angstroms):
                    1          2          3          4          5
     1  H    0.000000
     2  C    1.094155   0.000000
     3  H    1.783268   1.094268   0.000000
     4  H    1.763009   1.094800   1.781189   0.000000
     5  C    2.141008   1.521670   2.202208   2.142626   0.000000
     6  O    2.704394   2.410753   3.316898   2.741244   1.228108
     7  N    3.178443   2.440858   2.558621   3.139754   1.362540
     8  H    3.391030   2.612528   2.284939   3.362751   2.087711
     9  C    4.450738   3.812259   4.006404   4.438303   2.460061
    10  H    4.478621   4.067680   4.458993   4.739817   2.612618
    11  C    5.368949   4.575649   4.849799   4.885184   3.236223
    12  H    5.672313   4.743101   4.829000   4.960498   3.639072
    13  H    6.336220   5.606659   5.893993   5.944054   4.202215
    14  H    5.090667   4.329012   4.812824   4.453671   2.997217
    15  C    5.382203   4.774640   4.657270   5.529037   3.671551
    16  O    5.412892   4.760953   4.364633   5.539016   3.993996
    17  N    6.530383   6.008135   5.972470   6.766350   4.784125
    18  H    6.617494   6.175405   6.311852   6.906899   4.821518
    19  C    7.653526   7.167135   6.983256   7.985324   6.071426
    20  H    7.486872   6.970186   6.624773   7.807595   6.057740
    21  C    8.121019   7.824270   7.699117   8.737223   6.744306
    22  H    8.457737   8.195751   8.207720   9.072880   6.992012
    23  H    9.048206   8.749692   8.540873   9.677386   7.737465
    24  H    7.450933   7.267860   7.132607   8.245525   6.297503
    25  C    8.945120   8.359549   8.180209   9.079602   7.205116
    26  O    9.867234   9.269271   8.981972  10.002528   8.211201
    27  N    9.208276   8.592056   8.560649   9.215279   7.298029
    28  H    8.524625   7.904867   7.972153   8.479727   6.545961
    29  C   10.479776   9.800800   9.768596  10.341974   8.500985
    30  H   10.774827  10.035884   9.895811  10.560973   8.831156
    31  C   11.638398  11.039339  11.032316  11.638013   9.706434
    32  H   11.563436  11.031194  11.121388  11.636375   9.636048
    33  H   12.592156  11.951831  11.938712  12.503089  10.620427
    34  H   11.758526  11.198755  11.116076  11.872929   9.926038
    35  C   10.444082   9.716047   9.804749  10.119576   8.358541
    36  O    9.551751   8.845849   9.040165   9.207521   7.439607
    37  N   11.620152  10.844437  10.924419  11.173464   9.512490
    38  H   12.327025  11.543702  11.551914  11.908005  10.247089
    39  C   12.029457  11.227306  11.396214  11.430413   9.891560
    40  H   11.269871  10.490281  10.740063  10.656382   9.129323
    41  H   12.300941  11.434775  11.552347  11.570365  10.176469
    42  H   12.947755  12.179088  12.386201  12.387968  10.808437
                    6          7          8          9         10
     6  O    0.000000
     7  N    2.270647   0.000000
     8  H    3.184579   1.012992   0.000000
     9  C    2.795433   1.449407   2.093900   0.000000
    10  H    2.543242   2.070163   2.869388   1.097436   0.000000
    11  C    3.319126   2.484290   3.102603   1.542757   2.157854
    12  H    3.980752   2.752233   3.068845   2.178439   3.069820
    13  H    4.125542   3.434620   4.027021   2.197625   2.516715
    14  H    2.783196   2.722593   3.518398   2.157183   2.467334
    15  C    4.219428   2.400765   2.422684   1.535719   2.174397
    16  O    4.818818   2.660153   2.181543   2.417328   3.205220
    17  N    5.094585   3.631309   3.777634   2.448053   2.650456
    18  H    4.885101   3.865940   4.245617   2.534343   2.344740
    19  C    6.477143   4.860030   4.791366   3.838301   4.054574
    20  H    6.656295   4.776351   4.481399   4.023083   4.435897
    21  C    7.041322   5.687494   5.685759   4.716044   4.615019
    22  H    7.100901   6.041679   6.211305   4.920459   4.627007
    23  H    8.094791   6.635974   6.532569   5.715997   5.685283
    24  H    6.635583   5.338219   5.308533   4.571714   4.389443
    25  C    7.550733   5.962929   5.913951   4.819146   5.110144
    26  O    8.649112   6.920828   6.739282   5.886916   6.249880
    27  N    7.454930   6.153832   6.297987   4.838615   5.031676
    28  H    6.606500   5.484067   5.758306   4.101680   4.239900
    29  C    8.622362   7.366120   7.506454   6.053286   6.296039
    30  H    9.082711   7.619117   7.628287   6.415680   6.817102
    31  C    9.757743   8.605031   8.770435   7.253179   7.340551
    32  H    9.561222   8.632250   8.907440   7.226830   7.154313
    33  H   10.663480   9.516766   9.673814   8.170966   8.301576
    34  H   10.064572   8.772752   8.847560   7.479713   7.576009
    35  C    8.337358   7.351787   7.633882   6.013493   6.240162
    36  O    7.307067   6.548643   6.959283   5.187481   5.331849
    37  N    9.481149   8.522848   8.785306   7.229431   7.503637
    38  H   10.289127   9.187620   9.367272   7.914891   8.230135
    39  C    9.750085   9.032189   9.384002   7.781117   8.035998
    40  H    8.899932   8.368712   8.810148   7.122808   7.316690
    41  H   10.108079   9.302984   9.591262   8.148905   8.524943
    42  H   10.597440   9.983368  10.372152   8.693011   8.862457
                   11         12         13         14         15
    11  C    0.000000
    12  H    1.094953   0.000000
    13  H    1.095538   1.776974   0.000000
    14  H    1.092917   1.781682   1.779120   0.000000
    15  C    2.535791   2.778324   2.811865   3.472373   0.000000
    16  O    3.360985   3.252776   3.799011   4.275076   1.226503
    17  N    3.115189   3.512671   2.882550   4.080976   1.369019
    18  H    3.100188   3.763432   2.681546   3.909224   2.034080
    19  C    4.485955   4.708080   4.178001   5.498727   2.484636
    20  H    4.776057   4.807590   4.675984   5.816725   2.503151
    21  C    5.575820   5.986787   5.240296   6.482317   3.529246
    22  H    5.650355   6.204271   5.160451   6.472169   3.982530
    23  H    6.533232   6.848606   6.173402   7.482597   4.422023
    24  H    5.682949   6.145508   5.526699   6.516323   3.471730
    25  C    5.030928   5.112812   4.479747   6.069350   3.586109
    26  O    6.109515   6.058054   5.604972   7.173090   4.544783
    27  N    4.709160   4.888799   3.915113   5.654582   3.951404
    28  H    3.849880   4.152849   2.979158   4.733957   3.480580
    29  C    5.651135   5.703325   4.767326   6.536275   5.256682
    30  H    6.003952   5.861144   5.236209   6.946614   5.491959
    31  C    6.974045   7.140357   6.043657   7.821924   6.418510
    32  H    6.973291   7.298320   5.986988   7.734099   6.535947
    33  H    7.761252   7.853727   6.808752   8.579692   7.370357
    34  H    7.401810   7.552418   6.556613   8.318710   6.467183
    35  C    5.256494   5.322791   4.269280   5.971582   5.579909
    36  O    4.324023   4.540654   3.273836   4.925579   5.028099
    37  N    6.330120   6.281713   5.368065   6.971677   6.833512
    38  H    7.102869   6.987773   6.177356   7.815149   7.360725
    39  C    6.664816   6.611517   5.716419   7.115081   7.640147
    40  H    5.937053   5.978712   4.979584   6.275502   7.169525
    41  H    6.948046   6.731023   6.102449   7.385926   8.010822
    42  H    7.605832   7.626747   6.617165   8.013268   8.560668
                   16         17         18         19         20
    16  O    0.000000
    17  N    2.286808   0.000000
    18  H    3.146974   1.013177   0.000000
    19  C    2.845333   1.462545   2.128432   0.000000
    20  H    2.352948   2.050524   2.945466   1.091757   0.000000
    21  C    3.938466   2.485010   2.688710   1.535575   2.162779
    22  H    4.646526   2.766312   2.565992   2.185005   3.080064
    23  H    4.636094   3.420006   3.718058   2.163931   2.511940
    24  H    3.792176   2.753600   2.950618   2.174597   2.485690
    25  C    3.929460   2.508955   2.981663   1.540171   2.119165
    26  O    4.627577   3.611428   4.171847   2.408248   2.571058
    27  N    4.587229   2.794072   2.893260   2.459945   3.263829
    28  H    4.316663   2.391811   2.279312   2.626598   3.490805
    29  C    5.820445   4.198395   4.269662   3.829294   4.502753
    30  H    5.842042   4.588158   4.875258   4.072873   4.504417
    31  C    7.010704   5.205530   5.145076   4.614647   5.365723
    32  H    7.278660   5.254391   4.985994   4.818025   5.714845
    33  H    7.924827   6.210066   6.167814   5.634512   6.319434
    34  H    6.939266   5.232022   5.281457   4.361424   5.022657
    35  C    6.288798   4.681344   4.578210   4.767399   5.479256
    36  O    5.892657   4.227768   3.958490   4.678321   5.453594
    37  N    7.469725   6.001002   5.929451   6.027779   6.666405
    38  H    7.891499   6.489502   6.510305   6.302411   6.871723
    39  C    8.336620   6.936328   6.774646   7.186884   7.834551
    40  H    7.961178   6.533536   6.274711   6.991568   7.685155
    41  H    8.596064   7.444417   7.393606   7.701642   8.232256
    42  H    9.302499   7.768888   7.530076   7.963327   8.672475
                   21         22         23         24         25
    21  C    0.000000
    22  H    1.097081   0.000000
    23  H    1.093699   1.773294   0.000000
    24  H    1.094538   1.780790   1.779922   0.000000
    25  C    2.515852   2.822282   2.691227   3.471255   0.000000
    26  O    3.123786   3.575463   2.854952   4.070722   1.226800
    27  N    3.315490   3.189304   3.676068   4.278896   1.361931
    28  H    3.542878   3.314663   4.156792   4.355314   2.065670
    29  C    4.627180   4.440249   4.790786   5.647919   2.454893
    30  H    5.030604   5.059306   5.064613   6.037662   2.594981
    31  C    4.972503   4.601483   4.920079   6.052650   3.256628
    32  H    4.963929   4.366548   5.024937   5.997720   3.691000
    33  H    6.044168   5.691421   5.932591   7.129657   4.206602
    34  H    4.539392   4.281610   4.267614   5.631764   3.019503
    35  C    5.669101   5.363855   6.038190   6.597940   3.646083
    36  O    5.587454   5.214455   6.162357   6.389285   3.908033
    37  N    6.935849   6.637130   7.209343   7.897922   4.786781
    38  H    7.172754   6.933852   7.297630   8.187272   4.917804
    39  C    8.130705   7.775650   8.504770   9.035545   6.073232
    40  H    7.934055   7.533596   8.438198   8.760222   6.067066
    41  H    8.774635   8.526029   9.131779   9.664371   6.575980
    42  H    8.778469   8.329911   9.107042   9.713629   6.806968
                   26         27         28         29         30
    26  O    0.000000
    27  N    2.279421   0.000000
    28  H    3.165255   1.015521   0.000000
    29  C    2.809687   1.451809   2.074722   0.000000
    30  H    2.559648   2.081971   2.794183   1.098592   0.000000
    31  C    3.336832   2.473296   3.177325   1.539586   2.155131
    32  H    4.016821   2.754388   3.217960   2.180779   3.071375
    33  H    4.125398   3.427660   4.084006   2.195911   2.501061
    34  H    2.799661   2.700594   3.589045   2.154932   2.474473
    35  C    4.223615   2.397958   2.354485   1.541262   2.168441
    36  O    4.761787   2.621197   2.073798   2.421708   3.149808
    37  N    5.141030   3.638517   3.704767   2.449732   2.699528
    38  H    5.029547   3.931311   4.234166   2.545835   2.509928
    39  C    6.525313   4.866647   4.709928   3.835434   4.101835
    40  H    6.705867   4.803475   4.423733   4.051471   4.485170
    41  H    6.942961   5.481675   5.350360   4.441986   4.464731
    42  H    7.213937   5.565521   5.460799   4.449540   4.787631
                   31         32         33         34         35
    31  C    0.000000
    32  H    1.094753   0.000000
    33  H    1.095996   1.778023   0.000000
    34  H    1.093071   1.781297   1.773213   0.000000
    35  C    2.560996   2.802917   2.857844   3.491706   0.000000
    36  O    3.467210   3.417696   3.935977   4.348889   1.230608
    37  N    3.068077   3.416324   2.849106   4.058398   1.357300
    38  H    2.885904   3.461663   2.378310   3.766386   2.041279
    39  C    4.422049   4.582458   4.129111   5.457068   2.472110
    40  H    4.780443   4.773914   4.706971   5.828263   2.525258
    41  H    5.168622   5.484884   4.814086   6.135741   3.178601
    42  H    4.696017   4.733746   4.233546   5.754296   3.201369
                   36         37         38         39         40
    36  O    0.000000
    37  N    2.279345   0.000000
    38  H    3.161596   1.010203   0.000000
    39  C    2.834784   1.454143   2.129970   0.000000
    40  H    2.373710   2.063366   2.973588   1.090313   0.000000
    41  H    3.562856   2.112170   2.525546   1.095915   1.780835
    42  H    3.604970   2.110684   2.521960   1.095772   1.782273
                   41         42
    41  H    0.000000
    42  H    1.783669   0.000000
 Stoichiometry    C12H22N4O4
 Framework group  C1[X(C12H22N4O4)]
 Deg. of freedom   120
 Full point group                 C1      NOp   1
 Largest Abelian subgroup         C1      NOp   1
 Largest concise Abelian subgroup C1      NOp   1
                         Standard orientation:                         
 ---------------------------------------------------------------------
 Center     Atomic      Atomic             Coordinates (Angstroms)
 Number     Number       Type             X           Y           Z
 ---------------------------------------------------------------------
      1          1           0       -7.054610   -0.352541    0.251903
      2          6           0       -6.343907   -0.764936   -0.470597
      3          1           0       -6.289612   -0.101736   -1.339297
      4          1           0       -6.732001   -1.737439   -0.790297
      5          6           0       -5.005806   -0.973428    0.223303
      6          8           0       -4.897502   -1.646827    1.244603
      7          7           0       -3.937410   -0.369721   -0.368797
      8          1           0       -4.035414    0.234279   -1.176097
      9          6           0       -2.605009   -0.437312    0.197703
     10          1           0       -2.697810   -0.371112    1.289203
     11          6           0       -1.888701   -1.758107   -0.152297
     12          1           0       -1.793300   -1.860207   -1.238297
     13          1           0       -0.887201   -1.804901    0.289303
     14          1           0       -2.482395   -2.590711    0.233403
     15          6           0       -1.824417    0.769693   -0.342897
     16          8           0       -2.179721    1.367491   -1.353197
     17          7           0       -0.681719    1.069701    0.348803
     18          1           0       -0.597617    0.671401    1.276603
     19          6           0        0.144773    2.235906    0.039103
     20          1           0       -0.304030    2.693903   -0.844497
     21          6           0        0.163066    3.248906    1.193003
     22          1           0        0.571569    2.799409    2.106603
     23          1           0        0.792661    4.101610    0.923403
     24          1           0       -0.849436    3.608600    1.401503
     25          6           0        1.587875    1.872516   -0.357797
     26          8           0        2.258870    2.638820   -1.041597
     27          7           0        2.088783    0.737619    0.204303
     28          1           0        1.457188    0.016315    0.539103
     29          6           0        3.401086    0.230227   -0.153697
     30          1           0        3.589485    0.458829   -1.211597
     31          6           0        4.509382    0.886235    0.689903
     32          1           0        4.365583    0.667034    1.752803
     33          1           0        5.505284    0.536941    0.394303
     34          1           0        4.468975    1.968334    0.540803
     35          6           0        3.344296   -1.298373    0.035103
     36          8           0        2.375000   -1.843179    0.562403
     37          7           0        4.432401   -1.977066   -0.409497
     38          1           0        5.172497   -1.456761   -0.858997
     39          6           0        4.563310   -3.421665   -0.306897
     40          1           0        3.676213   -3.795971    0.204703
     41          1           0        4.626313   -3.882964   -1.298997
     42          1           0        5.454412   -3.694459    0.269503
 ---------------------------------------------------------------------
 Rotational constants (GHZ):      0.4880189      0.1475899      0.1208132
 Standard basis: Aug-CC-pVDZ (5D, 7F)
 There are   658 symmetry adapted basis functions of A   symmetry.
 Integral buffers will be    131072 words long.
 Raffenetti 1 integral format.
 Two-electron integral symmetry is turned on.
   658 basis functions,  1102 primitive gaussians,   698 cartesian basis functions
    77 alpha electrons       77 beta electrons
       nuclear repulsion energy      1610.0942554293 Hartrees.
 NAtoms=   42 NActive=   42 NUniq=   42 SFac= 7.50D-01 NAtFMM=   80 NAOKFM=F Big=F
 One-electron integrals computed using PRISM.
 PrsmSu:  requested number of processors reduced to:   7 ShMem   1 Linda.
 NBasis=   658 RedAO= T  NBF=   658
 NBsUse=   658 1.00D-06 NBFU=   658
 Harris functional with IExCor=  205 diagonalized for initial guess.
 ExpMin= 2.97D-02 ExpMax= 1.17D+04 ExpMxC= 4.01D+02 IAcc=3 IRadAn=         0 AccDes= 0.00D+00
 HarFok:  IExCor=  205 AccDes= 0.00D+00 IRadAn=         0 IDoV= 1
 ScaDFX=  1.000000  1.000000  1.000000  1.000000
 FoFCou: FMM=F IPFlag=           0 FMFlag=      100000 FMFlg1=           0
         NFxFlg=           0 DoJE=T BraDBF=F KetDBF=T FulRan=T
         Omega=  0.000000  0.000000  1.000000  0.000000  0.000000 ICntrl=     500 IOpCl=  0
         NMat0=    1 NMatS0=    1 NMatT0=    0 NMatD0=    1 NMtDS0=    0 NMtDT0=    0
         I1Cent=           4 NGrid=           0.
 Petite list used in FoFCou.
 Initial guess orbital symmetries:
       Occupied  (A) (A) (A) (A) (A) (A) (A) (A) (A) (A) (A) (A)
                 (A) (A) (A) (A) (A) (A) (A) (A) (A) (A) (A) (A)
                 (A) (A) (A) (A) (A) (A) (A) (A) (A) (A) (A) (A)
                 (A) (A) (A) (A) (A) (A) (A) (A) (A) (A) (A) (A)
                 (A) (A) (A) (A) (A) (A) (A) (A) (A) (A) (A) (A)
                 (A) (A) (A) (A) (A) (A) (A) (A) (A) (A) (A) (A)
                 (A) (A) (A) (A) (A)
       Virtual   (A) (A) (A) (A) (A) (A) (A) (A) (A) (A) (A) (A)
                 (A) (A) (A) (A) (A) (A) (A) (A) (A) (A) (A) (A)
                 (A) (A) (A) (A) (A) (A) (A) (A) (A) (A) (A) (A)
                 (A) (A) (A) (A) (A) (A) (A) (A) (A) (A) (A) (A)
                 (A) (A) (A) (A) (A) (A) (A) (A) (A) (A) (A) (A)
                 (A) (A) (A) (A) (A) (A) (A) (A) (A) (A) (A) (A)
                 (A) (A) (A) (A) (A) (A) (A) (A) (A) (A) (A) (A)
                 (A) (A) (A) (A) (A) (A) (A) (A) (A) (A) (A) (A)
                 (A) (A) (A) (A) (A) (A) (A) (A) (A) (A) (A) (A)
                 (A) (A) (A) (A) (A) (A) (A) (A) (A) (A) (A) (A)
                 (A) (A) (A) (A) (A) (A) (A) (A) (A) (A) (A) (A)
                 (A) (A) (A) (A) (A) (A) (A) (A) (A) (A) (A) (A)
                 (A) (A) (A) (A) (A) (A) (A) (A) (A) (A) (A) (A)
                 (A) (A) (A) (A) (A) (A) (A) (A) (A) (A) (A) (A)
                 (A) (A) (A) (A) (A) (A) (A) (A) (A) (A) (A) (A)
                 (A) (A) (A) (A) (A) (A) (A) (A) (A) (A) (A) (A)
                 (A) (A) (A) (A) (A) (A) (A) (A) (A) (A) (A) (A)
                 (A) (A) (A) (A) (A) (A) (A) (A) (A) (A) (A) (A)
                 (A) (A) (A) (A) (A) (A) (A) (A) (A) (A) (A) (A)
                 (A) (A) (A) (A) (A) (A) (A) (A) (A) (A) (A) (A)
                 (A) (A) (A) (A) (A) (A) (A) (A) (A) (A) (A) (A)
                 (A) (A) (A) (A) (A) (A) (A) (A) (A) (A) (A) (A)
                 (A) (A) (A) (A) (A) (A) (A) (A) (A) (A) (A) (A)
                 (A) (A) (A) (A) (A) (A) (A) (A) (A) (A) (A) (A)
                 (A) (A) (A) (A) (A) (A) (A) (A) (A) (A) (A) (A)
                 (A) (A) (A) (A) (A) (A) (A) (A) (A) (A) (A) (A)
                 (A) (A) (A) (A) (A) (A) (A) (A) (A) (A) (A) (A)
                 (A) (A) (A) (A) (A) (A) (A) (A) (A) (A) (A) (A)
                 (A) (A) (A) (A) (A) (A) (A) (A) (A) (A) (A) (A)
                 (A) (A) (A) (A) (A) (A) (A) (A) (A) (A) (A) (A)
                 (A) (A) (A) (A) (A) (A) (A) (A) (A) (A) (A) (A)
                 (A) (A) (A) (A) (A) (A) (A) (A) (A) (A) (A) (A)
                 (A) (A) (A) (A) (A) (A) (A) (A) (A) (A) (A) (A)
                 (A) (A) (A) (A) (A) (A) (A) (A) (A) (A) (A) (A)
                 (A) (A) (A) (A) (A) (A) (A) (A) (A) (A) (A) (A)
                 (A) (A) (A) (A) (A) (A) (A) (A) (A) (A) (A) (A)
                 (A) (A) (A) (A) (A) (A) (A) (A) (A) (A) (A) (A)
                 (A) (A) (A) (A) (A) (A) (A) (A) (A) (A) (A) (A)
                 (A) (A) (A) (A) (A) (A) (A) (A) (A) (A) (A) (A)
                 (A) (A) (A) (A) (A) (A) (A) (A) (A) (A) (A) (A)
                 (A) (A) (A) (A) (A) (A) (A) (A) (A) (A) (A) (A)
                 (A) (A) (A) (A) (A) (A) (A) (A) (A) (A) (A) (A)
                 (A) (A) (A) (A) (A) (A) (A) (A) (A) (A) (A) (A)
                 (A) (A) (A) (A) (A) (A) (A) (A) (A) (A) (A) (A)
                 (A) (A) (A) (A) (A) (A) (A) (A) (A) (A) (A) (A)
                 (A) (A) (A) (A) (A) (A) (A) (A) (A) (A) (A) (A)
                 (A) (A) (A) (A) (A) (A) (A) (A) (A) (A) (A) (A)
                 (A) (A) (A) (A) (A) (A) (A) (A) (A) (A) (A) (A)
                 (A) (A) (A) (A) (A)
 The electronic state of the initial guess is 1-A.
 Requested convergence on RMS density matrix=1.00D-08 within 128 cycles.
 Requested convergence on MAX density matrix=1.00D-06.
 Requested convergence on             energy=1.00D-06.
 No special actions if energy rises.
 Initial convergence to 1.0D-05 achieved.  Increase integral accuracy.
 SCF Done:  E(RHF) =  -984.696749639     A.U. after   15 cycles
             Convg  =    0.3339D-08             -V/T =  2.0017
 ExpMin= 2.97D-02 ExpMax= 1.17D+04 ExpMxC= 4.01D+02 IAcc=3 IRadAn=         5 AccDes= 0.00D+00
 HarFok:  IExCor=  205 AccDes= 0.00D+00 IRadAn=         5 IDoV=-2
 ScaDFX=  1.000000  1.000000  1.000000  1.000000
 Range of M.O.s used for correlation:    21   658
 NBasis=   658 NAE=    77 NBE=    77 NFC=    20 NFV=     0
 NROrb=    638 NOA=    57 NOB=    57 NVA=   581 NVB=   581

 **** Warning!!: The largest alpha MO coefficient is  0.88676390D+02

 Disk-based method using OVN memory for 57 occupieds at a time.
 Estimated scratch disk usage= 20536908770 words.
 Actual    scratch disk usage= 20535267298 words.
 GetIJB would need an additional    27732516 words of memory to use all   8 processors.
 JobTyp=1 Pass  1:  I=   1 to  57 NPSUse=  1 ParTrn=F ParDer=F DoDerP=F.
 Spin components of T(2) and E(2):
     alpha-alpha T2 =       0.1370859552D+00 E2=     -0.4152998382D+00
     alpha-beta  T2 =       0.7459749014D+00 E2=     -0.2361801557D+01
     beta-beta   T2 =       0.1370859552D+00 E2=     -0.4152998382D+00
 ANorm=    0.1421318688D+01
 E2 =    -0.3192401233D+01 EUMP2 =    -0.98788915087192D+03

 **********************************************************************

            Population analysis using the SCF density.

 **********************************************************************

 Orbital symmetries:
       Occupied  (A) (A) (A) (A) (A) (A) (A) (A) (A) (A) (A) (A)
                 (A) (A) (A) (A) (A) (A) (A) (A) (A) (A) (A) (A)
                 (A) (A) (A) (A) (A) (A) (A) (A) (A) (A) (A) (A)
                 (A) (A) (A) (A) (A) (A) (A) (A) (A) (A) (A) (A)
                 (A) (A) (A) (A) (A) (A) (A) (A) (A) (A) (A) (A)
                 (A) (A) (A) (A) (A) (A) (A) (A) (A) (A) (A) (A)
                 (A) (A) (A) (A) (A)
       Virtual   (A) (A) (A) (A) (A) (A) (A) (A) (A) (A) (A) (A)
                 (A) (A) (A) (A) (A) (A) (A) (A) (A) (A) (A) (A)
                 (A) (A) (A) (A) (A) (A) (A) (A) (A) (A) (A) (A)
                 (A) (A) (A) (A) (A) (A) (A) (A) (A) (A) (A) (A)
                 (A) (A) (A) (A) (A) (A) (A) (A) (A) (A) (A) (A)
                 (A) (A) (A) (A) (A) (A) (A) (A) (A) (A) (A) (A)
                 (A) (A) (A) (A) (A) (A) (A) (A) (A) (A) (A) (A)
                 (A) (A) (A) (A) (A) (A) (A) (A) (A) (A) (A) (A)
                 (A) (A) (A) (A) (A) (A) (A) (A) (A) (A) (A) (A)
                 (A) (A) (A) (A) (A) (A) (A) (A) (A) (A) (A) (A)
                 (A) (A) (A) (A) (A) (A) (A) (A) (A) (A) (A) (A)
                 (A) (A) (A) (A) (A) (A) (A) (A) (A) (A) (A) (A)
                 (A) (A) (A) (A) (A) (A) (A) (A) (A) (A) (A) (A)
                 (A) (A) (A) (A) (A) (A) (A) (A) (A) (A) (A) (A)
                 (A) (A) (A) (A) (A) (A) (A) (A) (A) (A) (A) (A)
                 (A) (A) (A) (A) (A) (A) (A) (A) (A) (A) (A) (A)
                 (A) (A) (A) (A) (A) (A) (A) (A) (A) (A) (A) (A)
                 (A) (A) (A) (A) (A) (A) (A) (A) (A) (A) (A) (A)
                 (A) (A) (A) (A) (A) (A) (A) (A) (A) (A) (A) (A)
                 (A) (A) (A) (A) (A) (A) (A) (A) (A) (A) (A) (A)
                 (A) (A) (A) (A) (A) (A) (A) (A) (A) (A) (A) (A)
                 (A) (A) (A) (A) (A) (A) (A) (A) (A) (A) (A) (A)
                 (A) (A) (A) (A) (A) (A) (A) (A) (A) (A) (A) (A)
                 (A) (A) (A) (A) (A) (A) (A) (A) (A) (A) (A) (A)
                 (A) (A) (A) (A) (A) (A) (A) (A) (A) (A) (A) (A)
                 (A) (A) (A) (A) (A) (A) (A) (A) (A) (A) (A) (A)
                 (A) (A) (A) (A) (A) (A) (A) (A) (A) (A) (A) (A)
                 (A) (A) (A) (A) (A) (A) (A) (A) (A) (A) (A) (A)
                 (A) (A) (A) (A) (A) (A) (A) (A) (A) (A) (A) (A)
                 (A) (A) (A) (A) (A) (A) (A) (A) (A) (A) (A) (A)
                 (A) (A) (A) (A) (A) (A) (A) (A) (A) (A) (A) (A)
                 (A) (A) (A) (A) (A) (A) (A) (A) (A) (A) (A) (A)
                 (A) (A) (A) (A) (A) (A) (A) (A) (A) (A) (A) (A)
                 (A) (A) (A) (A) (A) (A) (A) (A) (A) (A) (A) (A)
                 (A) (A) (A) (A) (A) (A) (A) (A) (A) (A) (A) (A)
                 (A) (A) (A) (A) (A) (A) (A) (A) (A) (A) (A) (A)
                 (A) (A) (A) (A) (A) (A) (A) (A) (A) (A) (A) (A)
                 (A) (A) (A) (A) (A) (A) (A) (A) (A) (A) (A) (A)
                 (A) (A) (A) (A) (A) (A) (A) (A) (A) (A) (A) (A)
                 (A) (A) (A) (A) (A) (A) (A) (A) (A) (A) (A) (A)
                 (A) (A) (A) (A) (A) (A) (A) (A) (A) (A) (A) (A)
                 (A) (A) (A) (A) (A) (A) (A) (A) (A) (A) (A) (A)
                 (A) (A) (A) (A) (A) (A) (A) (A) (A) (A) (A) (A)
                 (A) (A) (A) (A) (A) (A) (A) (A) (A) (A) (A) (A)
                 (A) (A) (A) (A) (A) (A) (A) (A) (A) (A) (A) (A)
                 (A) (A) (A) (A) (A) (A) (A) (A) (A) (A) (A) (A)
                 (A) (A) (A) (A) (A) (A) (A) (A) (A) (A) (A) (A)
                 (A) (A) (A) (A) (A) (A) (A) (A) (A) (A) (A) (A)
                 (A) (A) (A) (A) (A)
 The electronic state is 1-A.
 Alpha  occ. eigenvalues --  -20.55261 -20.55133 -20.53709 -20.52335 -15.61427
 Alpha  occ. eigenvalues --  -15.61152 -15.59522 -15.58923 -11.38007 -11.37717
 Alpha  occ. eigenvalues --  -11.36374 -11.35802 -11.30249 -11.29590 -11.29518
 Alpha  occ. eigenvalues --  -11.28238 -11.24573 -11.24539 -11.24217 -11.23273
 Alpha  occ. eigenvalues --   -1.40754  -1.40540  -1.38880  -1.37708  -1.26078
 Alpha  occ. eigenvalues --   -1.25271  -1.23868  -1.23502  -1.07532  -1.05160
 Alpha  occ. eigenvalues --   -1.03006  -0.98508  -0.97057  -0.92001  -0.89961
 Alpha  occ. eigenvalues --   -0.87158  -0.81739  -0.81126  -0.78746  -0.78503
 Alpha  occ. eigenvalues --   -0.75802  -0.71629  -0.69273  -0.68091  -0.67099
 Alpha  occ. eigenvalues --   -0.65737  -0.65547  -0.64205  -0.63241  -0.62990
 Alpha  occ. eigenvalues --   -0.62566  -0.61170  -0.60486  -0.59236  -0.58640
 Alpha  occ. eigenvalues --   -0.57961  -0.57215  -0.56677  -0.56381  -0.55847
 Alpha  occ. eigenvalues --   -0.55720  -0.54451  -0.54265  -0.53491  -0.52996
 Alpha  occ. eigenvalues --   -0.52300  -0.52106  -0.49997  -0.49327  -0.45119
 Alpha  occ. eigenvalues --   -0.44485  -0.43936  -0.41975  -0.41626  -0.40336
 Alpha  occ. eigenvalues --   -0.39778  -0.38678
 Alpha virt. eigenvalues --    0.02416   0.03389   0.03767   0.04019   0.04303
 Alpha virt. eigenvalues --    0.04860   0.05171   0.05763   0.06023   0.06205
 Alpha virt. eigenvalues --    0.06709   0.06919   0.07201   0.07573   0.07724
 Alpha virt. eigenvalues --    0.08491   0.08667   0.09204   0.09881   0.10498
 Alpha virt. eigenvalues --    0.10800   0.11539   0.11858   0.12379   0.12618
 Alpha virt. eigenvalues --    0.12878   0.13304   0.13566   0.13744   0.14326
 Alpha virt. eigenvalues --    0.14440   0.14672   0.14905   0.15133   0.15455
 Alpha virt. eigenvalues --    0.15623   0.15997   0.16005   0.16276   0.16763
 Alpha virt. eigenvalues --    0.16947   0.17138   0.17816   0.17951   0.18134
 Alpha virt. eigenvalues --    0.18319   0.18445   0.18809   0.18935   0.19193
 Alpha virt. eigenvalues --    0.19340   0.19749   0.20116   0.20444   0.20586
 Alpha virt. eigenvalues --    0.20725   0.21315   0.21503   0.21823   0.22015
 Alpha virt. eigenvalues --    0.22561   0.22770   0.23044   0.23615   0.24059
 Alpha virt. eigenvalues --    0.24354   0.24619   0.25299   0.25467   0.25822
 Alpha virt. eigenvalues --    0.25936   0.26450   0.26998   0.27570   0.27967
 Alpha virt. eigenvalues --    0.28758   0.29009   0.29205   0.29530   0.30018
 Alpha virt. eigenvalues --    0.30365   0.30888   0.31058   0.31426   0.31556
 Alpha virt. eigenvalues --    0.32237   0.32344   0.32614   0.33012   0.33619
 Alpha virt. eigenvalues --    0.33658   0.34094   0.34433   0.34639   0.35266
 Alpha virt. eigenvalues --    0.35506   0.36278   0.36416   0.36584   0.37029
 Alpha virt. eigenvalues --    0.37424   0.37972   0.38433   0.38677   0.38917
 Alpha virt. eigenvalues --    0.39036   0.39302   0.39782   0.40037   0.40578
 Alpha virt. eigenvalues --    0.40798   0.41404   0.41539   0.41770   0.41881
 Alpha virt. eigenvalues --    0.42133   0.42474   0.42710   0.43113   0.43303
 Alpha virt. eigenvalues --    0.43721   0.44163   0.44465   0.44491   0.44800
 Alpha virt. eigenvalues --    0.45150   0.45293   0.45736   0.46008   0.46537
 Alpha virt. eigenvalues --    0.46939   0.47126   0.47406   0.47687   0.47822
 Alpha virt. eigenvalues --    0.48495   0.48772   0.48953   0.49143   0.49787
 Alpha virt. eigenvalues --    0.49865   0.50008   0.50788   0.51042   0.51153
 Alpha virt. eigenvalues --    0.51347   0.51948   0.52446   0.52832   0.52925
 Alpha virt. eigenvalues --    0.53368   0.53786   0.53913   0.54835   0.54882
 Alpha virt. eigenvalues --    0.55319   0.55903   0.56263   0.56744   0.57254
 Alpha virt. eigenvalues --    0.57706   0.57843   0.58202   0.58329   0.58537
 Alpha virt. eigenvalues --    0.59103   0.59463   0.59600   0.59848   0.60145
 Alpha virt. eigenvalues --    0.60478   0.60895   0.61318   0.61808   0.62196
 Alpha virt. eigenvalues --    0.62258   0.62621   0.63215   0.63428   0.63723
 Alpha virt. eigenvalues --    0.64156   0.64518   0.64759   0.65270   0.65436
 Alpha virt. eigenvalues --    0.66016   0.66355   0.67030   0.67275   0.67585
 Alpha virt. eigenvalues --    0.67867   0.68330   0.68859   0.69242   0.69394
 Alpha virt. eigenvalues --    0.69892   0.70190   0.70542   0.70969   0.71039
 Alpha virt. eigenvalues --    0.71350   0.71981   0.72485   0.72643   0.72965
 Alpha virt. eigenvalues --    0.73318   0.73518   0.73799   0.74158   0.74329
 Alpha virt. eigenvalues --    0.74997   0.75344   0.75967   0.76383   0.76542
 Alpha virt. eigenvalues --    0.76939   0.77478   0.77759   0.77975   0.78391
 Alpha virt. eigenvalues --    0.78728   0.79196   0.80130   0.80600   0.81037
 Alpha virt. eigenvalues --    0.81321   0.81858   0.82545   0.82938   0.83112
 Alpha virt. eigenvalues --    0.83355   0.84040   0.84340   0.84834   0.85190
 Alpha virt. eigenvalues --    0.85678   0.86003   0.86474   0.86995   0.87027
 Alpha virt. eigenvalues --    0.87831   0.88079   0.89337   0.89438   0.89987
 Alpha virt. eigenvalues --    0.90286   0.90516   0.91903   0.92508   0.92865
 Alpha virt. eigenvalues --    0.93143   0.93411   0.94514   0.94804   0.95353
 Alpha virt. eigenvalues --    0.95847   0.96664   0.96714   0.97429   0.97920
 Alpha virt. eigenvalues --    0.98148   0.98577   0.99024   0.99284   0.99922
 Alpha virt. eigenvalues --    1.00582   1.00789   1.01021   1.02129   1.03146
 Alpha virt. eigenvalues --    1.03365   1.04415   1.05200   1.05921   1.06093
 Alpha virt. eigenvalues --    1.06718   1.07069   1.08453   1.09056   1.09549
 Alpha virt. eigenvalues --    1.09604   1.10089   1.10853   1.11647   1.11938
 Alpha virt. eigenvalues --    1.12403   1.12978   1.13273   1.14053   1.14592
 Alpha virt. eigenvalues --    1.14984   1.15853   1.16258   1.16539   1.17159
 Alpha virt. eigenvalues --    1.18445   1.18542   1.19258   1.19814   1.20768
 Alpha virt. eigenvalues --    1.21011   1.21605   1.22325   1.22857   1.23282
 Alpha virt. eigenvalues --    1.24433   1.25136   1.25564   1.26221   1.26762
 Alpha virt. eigenvalues --    1.27762   1.28633   1.29304   1.30751   1.31115
 Alpha virt. eigenvalues --    1.31864   1.32373   1.32955   1.34062   1.35019
 Alpha virt. eigenvalues --    1.35251   1.36083   1.36947   1.38377   1.39122
 Alpha virt. eigenvalues --    1.39565   1.40350   1.41105   1.41695   1.42667
 Alpha virt. eigenvalues --    1.43267   1.44374   1.44749   1.45000   1.46148
 Alpha virt. eigenvalues --    1.48239   1.49129   1.49769   1.51395   1.52023
 Alpha virt. eigenvalues --    1.52695   1.53124   1.54267   1.55575   1.55670
 Alpha virt. eigenvalues --    1.56566   1.57535   1.57853   1.59541   1.61392
 Alpha virt. eigenvalues --    1.61631   1.62061   1.63315   1.64113   1.64487
 Alpha virt. eigenvalues --    1.67137   1.67634   1.67984   1.68703   1.70062
 Alpha virt. eigenvalues --    1.70796   1.71966   1.72855   1.73237   1.75176
 Alpha virt. eigenvalues --    1.75617   1.75971   1.76430   1.77485   1.78122
 Alpha virt. eigenvalues --    1.80030   1.80955   1.81828   1.82506   1.83374
 Alpha virt. eigenvalues --    1.84251   1.85214   1.85553   1.86650   1.87042
 Alpha virt. eigenvalues --    1.87615   1.88242   1.88644   1.89009   1.89693
 Alpha virt. eigenvalues --    1.90219   1.90776   1.91187   1.91555   1.92172
 Alpha virt. eigenvalues --    1.92671   1.94115   1.94293   1.95581   1.96666
 Alpha virt. eigenvalues --    1.97033   1.97626   1.98422   1.99197   2.00026
 Alpha virt. eigenvalues --    2.00495   2.01339   2.01679   2.02609   2.03724
 Alpha virt. eigenvalues --    2.04426   2.05327   2.06070   2.06588   2.08121
 Alpha virt. eigenvalues --    2.08825   2.09626   2.09943   2.10914   2.11945
 Alpha virt. eigenvalues --    2.12762   2.13554   2.13638   2.14245   2.15253
 Alpha virt. eigenvalues --    2.15677   2.15959   2.17296   2.17541   2.18409
 Alpha virt. eigenvalues --    2.19019   2.19315   2.19580   2.20891   2.21435
 Alpha virt. eigenvalues --    2.21991   2.23165   2.24166   2.25266   2.26563
 Alpha virt. eigenvalues --    2.27061   2.27384   2.28632   2.29687   2.30538
 Alpha virt. eigenvalues --    2.30976   2.31362   2.31781   2.32543   2.33649
 Alpha virt. eigenvalues --    2.34302   2.35184   2.36328   2.36665   2.37657
 Alpha virt. eigenvalues --    2.37957   2.38584   2.39047   2.39521   2.40735
 Alpha virt. eigenvalues --    2.40974   2.41934   2.42158   2.42593   2.44351
 Alpha virt. eigenvalues --    2.44745   2.45706   2.46059   2.47528   2.48259
 Alpha virt. eigenvalues --    2.48954   2.49843   2.50996   2.52944   2.53326
 Alpha virt. eigenvalues --    2.54320   2.55204   2.55610   2.55953   2.57671
 Alpha virt. eigenvalues --    2.57751   2.58682   2.59424   2.60000   2.60919
 Alpha virt. eigenvalues --    2.61787   2.63475   2.64475   2.64954   2.65748
 Alpha virt. eigenvalues --    2.66254   2.66842   2.67734   2.69010   2.70332
 Alpha virt. eigenvalues --    2.70893   2.71957   2.72748   2.73269   2.73473
 Alpha virt. eigenvalues --    2.73601   2.74283   2.75784   2.77236   2.77545
 Alpha virt. eigenvalues --    2.79825   2.80232   2.80732   2.81536   2.83100
 Alpha virt. eigenvalues --    2.85385   2.85918   2.86259   2.87372   2.88538
 Alpha virt. eigenvalues --    2.89109   2.90422   2.91220   2.92800   2.94710
 Alpha virt. eigenvalues --    2.95322   2.96290   2.98152   2.98396   2.99433
 Alpha virt. eigenvalues --    3.01225   3.01263   3.02763   3.03532   3.05206
 Alpha virt. eigenvalues --    3.05639   3.06913   3.08168   3.08714   3.10329
 Alpha virt. eigenvalues --    3.12563   3.14023   3.14883   3.16178   3.17581
 Alpha virt. eigenvalues --    3.20095   3.21370   3.22408   3.24645   3.27011
 Alpha virt. eigenvalues --    3.28483   3.30027   3.30817   3.34203   3.39350
 Alpha virt. eigenvalues --    3.42041   3.43344   3.45507   3.49088   3.51461
 Alpha virt. eigenvalues --    3.54373   3.59016   3.60517   3.61638   3.69108
 Alpha virt. eigenvalues --    3.71460   3.79673   3.81269   3.83406   3.83845
 Alpha virt. eigenvalues --    3.85109   3.85410   3.86233   3.87112   3.88119
 Alpha virt. eigenvalues --    3.89638   3.95694   3.98657   4.00521   4.03646
 Alpha virt. eigenvalues --    4.04231   4.05213   4.06066   4.09675   4.12178
 Alpha virt. eigenvalues --    4.16256   4.21416   4.22973   4.25219   4.30310
 Alpha virt. eigenvalues --    4.42660
          Condensed to atoms (all electrons):
              1          2          3          4          5          6
     1  H    0.741741   0.371169  -0.080497  -0.057115  -0.094536   0.023056
     2  C    0.371169   4.563571   0.334533   0.376330   0.146111  -0.062981
     3  H   -0.080497   0.334533   1.108979  -0.069721   0.128645  -0.011868
     4  H   -0.057115   0.376330  -0.069721   0.733796  -0.093489   0.020036
     5  C   -0.094536   0.146111   0.128645  -0.093489   5.731366   0.204207
     6  O    0.023056  -0.062981  -0.011868   0.020036   0.204207   8.742433
     7  N    0.069514  -0.039075  -0.228640   0.034629  -0.040777  -0.100677
     8  H   -0.006274  -0.051184  -0.000113  -0.002023  -0.168205  -0.004743
     9  C   -0.029782  -0.063702   0.005962   0.021025  -0.202669   0.004054
    10  H   -0.001503   0.001538   0.000684   0.000855   0.141329  -0.008890
    11  C    0.001011   0.007251  -0.011563  -0.000788  -0.073594   0.027206
    12  H    0.000424   0.010556   0.000935   0.000092   0.038037  -0.005837
    13  H   -0.000165   0.002559  -0.001489   0.000560  -0.065971   0.007740
    14  H   -0.001083   0.005477   0.003274  -0.000503   0.036358   0.020461
    15  C    0.023026   0.026051  -0.017715  -0.011105  -0.109548   0.000980
    16  O   -0.000520  -0.001666  -0.001329   0.000513  -0.033185   0.000144
    17  N   -0.000340  -0.000045   0.003540  -0.000503  -0.017612   0.011415
    18  H   -0.000437   0.002189   0.000241   0.000306  -0.007696   0.002176
    19  C    0.000233   0.000187  -0.000023  -0.000251  -0.018388   0.002899
    20  H    0.000054  -0.000154  -0.000073  -0.000060  -0.002913   0.000297
    21  C   -0.000017   0.000902  -0.000043   0.000076   0.000274   0.000046
    22  H    0.000010   0.000084  -0.000007   0.000004   0.000518  -0.000069
    23  H   -0.000001  -0.000006  -0.000008   0.000001   0.000056   0.000002
    24  H    0.000003   0.000225   0.000015   0.000019  -0.001170   0.000058
    25  C    0.000027  -0.000472   0.000295  -0.000062   0.003439   0.000129
    26  O   -0.000001  -0.000006  -0.000011   0.000001   0.000035  -0.000001
    27  N    0.000003   0.000179   0.000013  -0.000001  -0.002145   0.000279
    28  H    0.000013  -0.000941  -0.000050  -0.000092  -0.000120   0.000020
    29  C    0.000005   0.000092   0.000014   0.000004  -0.000412   0.000020
    30  H    0.000000   0.000018   0.000002   0.000001  -0.000109  -0.000008
    31  C    0.000000  -0.000003   0.000000   0.000000   0.000151   0.000004
    32  H    0.000000   0.000001   0.000000   0.000000   0.000007   0.000001
    33  H    0.000000   0.000000   0.000000   0.000000   0.000000   0.000000
    34  H    0.000000   0.000000   0.000001   0.000000   0.000040   0.000001
    35  C   -0.000001  -0.000022  -0.000010   0.000001   0.000779  -0.000014
    36  O    0.000000  -0.000007   0.000001  -0.000001  -0.000361  -0.000028
    37  N    0.000000  -0.000001  -0.000001   0.000000   0.000019  -0.000002
    38  H    0.000000   0.000000   0.000000   0.000000   0.000002   0.000000
    39  C    0.000000  -0.000002  -0.000001   0.000000   0.000013   0.000001
    40  H    0.000000  -0.000002  -0.000001   0.000000   0.000045  -0.000007
    41  H    0.000000   0.000000   0.000000   0.000000   0.000000   0.000000
    42  H    0.000000   0.000000   0.000000   0.000000   0.000000   0.000000
              7          8          9         10         11         12
     1  H    0.069514  -0.006274  -0.029782  -0.001503   0.001011   0.000424
     2  C   -0.039075  -0.051184  -0.063702   0.001538   0.007251   0.010556
     3  H   -0.228640  -0.000113   0.005962   0.000684  -0.011563   0.000935
     4  H    0.034629  -0.002023   0.021025   0.000855  -0.000788   0.000092
     5  C   -0.040777  -0.168205  -0.202669   0.141329  -0.073594   0.038037
     6  O   -0.100677  -0.004743   0.004054  -0.008890   0.027206  -0.005837
     7  N    7.974284   0.261445  -1.555122  -0.195187   0.307012  -0.176132
     8  H    0.261445   0.962844   0.282202   0.010613  -0.023624   0.004467
     9  C   -1.555122   0.282202  11.686741   0.174086  -0.729794   0.370444
    10  H   -0.195187   0.010613   0.174086   1.501319  -0.079977   0.094870
    11  C    0.307012  -0.023624  -0.729794  -0.079977   4.410634   0.104649
    12  H   -0.176132   0.004467   0.370444   0.094870   0.104649   1.257957
    13  H    0.117613   0.001129  -0.414470  -0.105303   0.386357  -0.135009
    14  H    0.057020  -0.012590  -0.188442  -0.060666   0.429085  -0.282965
    15  C    0.555453  -0.185712  -2.225459   0.006052   0.148302  -0.068019
    16  O   -0.102094   0.067079   0.244332  -0.022592  -0.045941   0.013736
    17  N    0.084167  -0.015889  -0.180876  -0.236978   0.094277  -0.121066
    18  H   -0.001233   0.002229  -0.132705   0.003469   0.018901   0.005225
    19  C    0.066549  -0.015418  -0.518201  -0.025304   0.079757  -0.027486
    20  H   -0.000924  -0.001920  -0.086569   0.000418  -0.000461  -0.001798
    21  C    0.006581  -0.000109  -0.100426  -0.010933   0.011382   0.001809
    22  H    0.000697  -0.000427  -0.028341   0.001671  -0.000597   0.000106
    23  H    0.000933   0.000531   0.005673   0.001260   0.000037  -0.000209
    24  H    0.000876  -0.001210  -0.012611  -0.000890   0.000581   0.000141
    25  C    0.007784  -0.005978   0.026623   0.011191  -0.012145  -0.003996
    26  O    0.000139   0.000411  -0.003204  -0.000351  -0.000071   0.000091
    27  N    0.008758  -0.001187  -0.066876  -0.013099   0.009293  -0.001900
    28  H    0.000329  -0.000030   0.023817   0.009947  -0.006786  -0.002739
    29  C    0.003846  -0.000706  -0.062578  -0.007357   0.013772  -0.003067
    30  H    0.000201  -0.000161  -0.005386  -0.000356   0.001740   0.000110
    31  C    0.000071   0.000075   0.005837   0.000103  -0.000669   0.000097
    32  H   -0.000011   0.000000  -0.000268  -0.000158   0.000002  -0.000051
    33  H    0.000036   0.000008  -0.000394  -0.000006   0.000020   0.000055
    34  H   -0.000068   0.000005   0.002214   0.000097  -0.000167   0.000004
    35  C    0.001369   0.000404   0.009587   0.002612  -0.011508   0.001262
    36  O   -0.001400  -0.000063   0.006809   0.000943  -0.002740   0.000814
    37  N    0.000034   0.000016   0.000900   0.000104   0.001867  -0.000115
    38  H    0.000001   0.000001   0.000174  -0.000015  -0.000132  -0.000052
    39  C    0.000091   0.000017  -0.000506  -0.000065   0.000193  -0.000098
    40  H    0.000065   0.000011   0.000013   0.000074  -0.000290  -0.000114
    41  H   -0.000005   0.000000   0.000083  -0.000001  -0.000101   0.000019
    42  H    0.000003   0.000000  -0.000030  -0.000008   0.000076   0.000025
             13         14         15         16         17         18
     1  H   -0.000165  -0.001083   0.023026  -0.000520  -0.000340  -0.000437
     2  C    0.002559   0.005477   0.026051  -0.001666  -0.000045   0.002189
     3  H   -0.001489   0.003274  -0.017715  -0.001329   0.003540   0.000241
     4  H    0.000560  -0.000503  -0.011105   0.000513  -0.000503   0.000306
     5  C   -0.065971   0.036358  -0.109548  -0.033185  -0.017612  -0.007696
     6  O    0.007740   0.020461   0.000980   0.000144   0.011415   0.002176
     7  N    0.117613   0.057020   0.555453  -0.102094   0.084167  -0.001233
     8  H    0.001129  -0.012590  -0.185712   0.067079  -0.015889   0.002229
     9  C   -0.414470  -0.188442  -2.225459   0.244332  -0.180876  -0.132705
    10  H   -0.105303  -0.060666   0.006052  -0.022592  -0.236978   0.003469
    11  C    0.386357   0.429085   0.148302  -0.045941   0.094277   0.018901
    12  H   -0.135009  -0.282965  -0.068019   0.013736  -0.121066   0.005225
    13  H    1.358782  -0.177583   0.171177  -0.011076  -0.007760   0.003063
    14  H   -0.177583   1.150876  -0.007674  -0.004291   0.091178  -0.002109
    15  C    0.171177  -0.007674   7.302998   0.107328  -0.086817  -0.152543
    16  O   -0.011076  -0.004291   0.107328   8.804189  -0.198085   0.025339
    17  N   -0.007760   0.091178  -0.086817  -0.198085   9.067521   0.132321
    18  H    0.003063  -0.002109  -0.152543   0.025339   0.132321   1.078723
    19  C   -0.000941   0.021333  -0.323573   0.081546  -1.071799   0.067936
    20  H   -0.002125   0.001202   0.079235  -0.033655  -0.290984  -0.001698
    21  C    0.004099  -0.000122   0.042658  -0.017974   0.119297  -0.045740
    22  H    0.000001  -0.000081  -0.022077   0.000603  -0.276811   0.019056
    23  H   -0.000702   0.000122   0.006320  -0.002122   0.168925  -0.017035
    24  H    0.001266  -0.000285   0.055058  -0.003997  -0.060644   0.010392
    25  C   -0.009397   0.001286  -0.207661   0.050814  -0.108769   0.025866
    26  O    0.000990  -0.000047   0.024667  -0.005555  -0.023692   0.001990
    27  N    0.003833  -0.000414  -0.046165  -0.012521  -0.126441   0.021314
    28  H   -0.018567  -0.001790  -0.040166   0.005166   0.019598  -0.006214
    29  C    0.026382   0.000020  -0.083580   0.003309  -0.207990   0.047613
    30  H    0.001167  -0.000012  -0.006272   0.000183  -0.006176   0.005133
    31  C    0.000157  -0.000051  -0.002151   0.000472  -0.022232   0.002007
    32  H    0.000792   0.000037  -0.000386  -0.000073  -0.004339   0.002435
    33  H   -0.000169  -0.000022   0.001286  -0.000025   0.004072  -0.001084
    34  H    0.000020  -0.000012   0.000560   0.000143  -0.004015   0.001167
    35  C   -0.002266  -0.001612   0.030136  -0.001279   0.066755  -0.016126
    36  O   -0.001795   0.000828   0.006265   0.000219  -0.000137  -0.001510
    37  N   -0.004129   0.000377   0.000678   0.000084   0.002277  -0.000113
    38  H    0.000595   0.000028  -0.000198   0.000008  -0.000748   0.000128
    39  C    0.000327   0.000019   0.000454   0.000041   0.001693  -0.000101
    40  H    0.000533   0.000015   0.000401  -0.000008   0.000406  -0.000275
    41  H   -0.000551  -0.000027  -0.000015  -0.000001   0.000039   0.000001
    42  H   -0.000190   0.000018  -0.000045   0.000002  -0.000065   0.000022
             19         20         21         22         23         24
     1  H    0.000233   0.000054  -0.000017   0.000010  -0.000001   0.000003
     2  C    0.000187  -0.000154   0.000902   0.000084  -0.000006   0.000225
     3  H   -0.000023  -0.000073  -0.000043  -0.000007  -0.000008   0.000015
     4  H   -0.000251  -0.000060   0.000076   0.000004   0.000001   0.000019
     5  C   -0.018388  -0.002913   0.000274   0.000518   0.000056  -0.001170
     6  O    0.002899   0.000297   0.000046  -0.000069   0.000002   0.000058
     7  N    0.066549  -0.000924   0.006581   0.000697   0.000933   0.000876
     8  H   -0.015418  -0.001920  -0.000109  -0.000427   0.000531  -0.001210
     9  C   -0.518201  -0.086569  -0.100426  -0.028341   0.005673  -0.012611
    10  H   -0.025304   0.000418  -0.010933   0.001671   0.001260  -0.000890
    11  C    0.079757  -0.000461   0.011382  -0.000597   0.000037   0.000581
    12  H   -0.027486  -0.001798   0.001809   0.000106  -0.000209   0.000141
    13  H   -0.000941  -0.002125   0.004099   0.000001  -0.000702   0.001266
    14  H    0.021333   0.001202  -0.000122  -0.000081   0.000122  -0.000285
    15  C   -0.323573   0.079235   0.042658  -0.022077   0.006320   0.055058
    16  O    0.081546  -0.033655  -0.017974   0.000603  -0.002122  -0.003997
    17  N   -1.071799  -0.290984   0.119297  -0.276811   0.168925  -0.060644
    18  H    0.067936  -0.001698  -0.045740   0.019056  -0.017035   0.010392
    19  C    8.996010  -0.081511  -0.034355   0.139565  -0.414316   0.245871
    20  H   -0.081511   1.450349   0.030633   0.091598  -0.045705  -0.032329
    21  C   -0.034355   0.030633   4.414089   0.377764   0.377338   0.059033
    22  H    0.139565   0.091598   0.377764   1.205044  -0.181149  -0.216847
    23  H   -0.414316  -0.045705   0.377338  -0.181149   1.196397  -0.181853
    24  H    0.245871  -0.032329   0.059033  -0.216847  -0.181853   1.177767
    25  C   -0.275572  -0.120070  -0.411243  -0.070025   0.076989   0.074347
    26  O   -0.086116   0.059114   0.089238   0.009519   0.028827  -0.010176
    27  N    0.002430   0.111464   0.096970   0.028146  -0.005448  -0.007145
    28  H   -0.139667  -0.004824  -0.031599  -0.010658   0.020292  -0.005857
    29  C   -0.012894   0.029128   0.067075   0.027575   0.032939  -0.008141
    30  H   -0.042070   0.001667   0.003153  -0.000130   0.001826  -0.000624
    31  C    0.054987  -0.002088  -0.026850  -0.000562  -0.006854   0.000938
    32  H    0.006423   0.000495  -0.001667   0.002101  -0.001261  -0.000428
    33  H   -0.003660  -0.000933   0.001558  -0.000786   0.000057   0.000200
    34  H    0.016527  -0.000959  -0.007047  -0.000610  -0.003141   0.001453
    35  C   -0.139803  -0.006099  -0.008480  -0.015495  -0.002113   0.005153
    36  O    0.021720   0.001122  -0.006472   0.000377  -0.000165  -0.000371
    37  N    0.008694   0.000257  -0.001987   0.000382  -0.000071  -0.000112
    38  H   -0.000901   0.000011  -0.000121  -0.000036   0.000013  -0.000033
    39  C   -0.001077  -0.000118  -0.000094  -0.000080  -0.000056   0.000048
    40  H   -0.000234  -0.000023  -0.000004   0.000000  -0.000004   0.000012
    41  H   -0.000284  -0.000034   0.000020  -0.000019  -0.000001   0.000004
    42  H    0.000186   0.000016   0.000006   0.000004  -0.000006   0.000003
             25         26         27         28         29         30
     1  H    0.000027  -0.000001   0.000003   0.000013   0.000005   0.000000
     2  C   -0.000472  -0.000006   0.000179  -0.000941   0.000092   0.000018
     3  H    0.000295  -0.000011   0.000013  -0.000050   0.000014   0.000002
     4  H   -0.000062   0.000001  -0.000001  -0.000092   0.000004   0.000001
     5  C    0.003439   0.000035  -0.002145  -0.000120  -0.000412  -0.000109
     6  O    0.000129  -0.000001   0.000279   0.000020   0.000020  -0.000008
     7  N    0.007784   0.000139   0.008758   0.000329   0.003846   0.000201
     8  H   -0.005978   0.000411  -0.001187  -0.000030  -0.000706  -0.000161
     9  C    0.026623  -0.003204  -0.066876   0.023817  -0.062578  -0.005386
    10  H    0.011191  -0.000351  -0.013099   0.009947  -0.007357  -0.000356
    11  C   -0.012145  -0.000071   0.009293  -0.006786   0.013772   0.001740
    12  H   -0.003996   0.000091  -0.001900  -0.002739  -0.003067   0.000110
    13  H   -0.009397   0.000990   0.003833  -0.018567   0.026382   0.001167
    14  H    0.001286  -0.000047  -0.000414  -0.001790   0.000020  -0.000012
    15  C   -0.207661   0.024667  -0.046165  -0.040166  -0.083580  -0.006272
    16  O    0.050814  -0.005555  -0.012521   0.005166   0.003309   0.000183
    17  N   -0.108769  -0.023692  -0.126441   0.019598  -0.207990  -0.006176
    18  H    0.025866   0.001990   0.021314  -0.006214   0.047613   0.005133
    19  C   -0.275572  -0.086116   0.002430  -0.139667  -0.012894  -0.042070
    20  H   -0.120070   0.059114   0.111464  -0.004824   0.029128   0.001667
    21  C   -0.411243   0.089238   0.096970  -0.031599   0.067075   0.003153
    22  H   -0.070025   0.009519   0.028146  -0.010658   0.027575  -0.000130
    23  H    0.076989   0.028827  -0.005448   0.020292   0.032939   0.001826
    24  H    0.074347  -0.010176  -0.007145  -0.005857  -0.008141  -0.000624
    25  C    6.319873  -0.000868  -0.203346   0.009853  -0.107406   0.179553
    26  O   -0.000868   8.889449  -0.071356  -0.012622  -0.038537  -0.002511
    27  N   -0.203346  -0.071356   8.375112   0.210350  -1.223126  -0.265382
    28  H    0.009853  -0.012622   0.210350   1.160969  -0.091620   0.005168
    29  C   -0.107406  -0.038537  -1.223126  -0.091620   9.529150   0.240551
    30  H    0.179553  -0.002511  -0.265382   0.005168   0.240551   1.320910
    31  C    0.001112   0.031188   0.048684  -0.027819  -0.111630   0.009582
    32  H    0.096343  -0.006500  -0.189339  -0.021026   0.284551   0.090040
    33  H   -0.065889   0.003713   0.249402   0.023785  -0.484166  -0.109617
    34  H    0.024591   0.029233  -0.058231  -0.019835  -0.025295  -0.015626
    35  C   -0.189066   0.025993   0.577129  -0.106493  -1.679886  -0.230262
    36  O    0.012401  -0.001336  -0.072750   0.069262   0.108340  -0.010566
    37  N    0.027023   0.002867  -0.036314   0.016765   0.170851  -0.045397
    38  H    0.004210  -0.000051  -0.009332  -0.000849  -0.091178   0.033830
    39  C   -0.004314   0.001844   0.015952  -0.005415  -0.059960  -0.010952
    40  H    0.000773   0.000166   0.002321  -0.000859   0.030282   0.000977
    41  H   -0.001067   0.000093   0.001094   0.001623   0.012873  -0.000386
    42  H    0.000874   0.000030   0.002806  -0.000141  -0.046587  -0.003606
             31         32         33         34         35         36
     1  H    0.000000   0.000000   0.000000   0.000000  -0.000001   0.000000
     2  C   -0.000003   0.000001   0.000000   0.000000  -0.000022  -0.000007
     3  H    0.000000   0.000000   0.000000   0.000001  -0.000010   0.000001
     4  H    0.000000   0.000000   0.000000   0.000000   0.000001  -0.000001
     5  C    0.000151   0.000007   0.000000   0.000040   0.000779  -0.000361
     6  O    0.000004   0.000001   0.000000   0.000001  -0.000014  -0.000028
     7  N    0.000071  -0.000011   0.000036  -0.000068   0.001369  -0.001400
     8  H    0.000075   0.000000   0.000008   0.000005   0.000404  -0.000063
     9  C    0.005837  -0.000268  -0.000394   0.002214   0.009587   0.006809
    10  H    0.000103  -0.000158  -0.000006   0.000097   0.002612   0.000943
    11  C   -0.000669   0.000002   0.000020  -0.000167  -0.011508  -0.002740
    12  H    0.000097  -0.000051   0.000055   0.000004   0.001262   0.000814
    13  H    0.000157   0.000792  -0.000169   0.000020  -0.002266  -0.001795
    14  H   -0.000051   0.000037  -0.000022  -0.000012  -0.001612   0.000828
    15  C   -0.002151  -0.000386   0.001286   0.000560   0.030136   0.006265
    16  O    0.000472  -0.000073  -0.000025   0.000143  -0.001279   0.000219
    17  N   -0.022232  -0.004339   0.004072  -0.004015   0.066755  -0.000137
    18  H    0.002007   0.002435  -0.001084   0.001167  -0.016126  -0.001510
    19  C    0.054987   0.006423  -0.003660   0.016527  -0.139803   0.021720
    20  H   -0.002088   0.000495  -0.000933  -0.000959  -0.006099   0.001122
    21  C   -0.026850  -0.001667   0.001558  -0.007047  -0.008480  -0.006472
    22  H   -0.000562   0.002101  -0.000786  -0.000610  -0.015495   0.000377
    23  H   -0.006854  -0.001261   0.000057  -0.003141  -0.002113  -0.000165
    24  H    0.000938  -0.000428   0.000200   0.001453   0.005153  -0.000371
    25  C    0.001112   0.096343  -0.065889   0.024591  -0.189066   0.012401
    26  O    0.031188  -0.006500   0.003713   0.029233   0.025993  -0.001336
    27  N    0.048684  -0.189339   0.249402  -0.058231   0.577129  -0.072750
    28  H   -0.027819  -0.021026   0.023785  -0.019835  -0.106493   0.069262
    29  C   -0.111630   0.284551  -0.484166  -0.025295  -1.679886   0.108340
    30  H    0.009582   0.090040  -0.109617  -0.015626  -0.230262  -0.010566
    31  C    4.285923   0.261952   0.262951   0.411923  -0.023981  -0.001094
    32  H    0.261952   1.128828  -0.222505  -0.161001  -0.224497   0.010319
    33  H    0.262951  -0.222505   1.374639  -0.178573   0.337027  -0.013158
    34  H    0.411923  -0.161001  -0.178573   1.020186  -0.013163   0.000683
    35  C   -0.023981  -0.224497   0.337027  -0.013163   6.483977   0.196056
    36  O   -0.001094   0.010319  -0.013158   0.000683   0.196056   8.753510
    37  N   -0.007639   0.004420  -0.059793   0.025932  -0.142441  -0.232689
    38  H   -0.013852   0.008835   0.003723  -0.003659   0.064384   0.008313
    39  C    0.001268  -0.013376   0.010184   0.006662  -0.100409  -0.003814
    40  H   -0.010759  -0.002739   0.002581   0.000224  -0.040281  -0.000515
    41  H   -0.000905   0.000179   0.000124  -0.000079  -0.027860   0.010715
    42  H    0.016141  -0.000984   0.001136   0.001125   0.018919   0.017543
             37         38         39         40         41         42
     1  H    0.000000   0.000000   0.000000   0.000000   0.000000   0.000000
     2  C   -0.000001   0.000000  -0.000002  -0.000002   0.000000   0.000000
     3  H   -0.000001   0.000000  -0.000001  -0.000001   0.000000   0.000000
     4  H    0.000000   0.000000   0.000000   0.000000   0.000000   0.000000
     5  C    0.000019   0.000002   0.000013   0.000045   0.000000   0.000000
     6  O   -0.000002   0.000000   0.000001  -0.000007   0.000000   0.000000
     7  N    0.000034   0.000001   0.000091   0.000065  -0.000005   0.000003
     8  H    0.000016   0.000001   0.000017   0.000011   0.000000   0.000000
     9  C    0.000900   0.000174  -0.000506   0.000013   0.000083  -0.000030
    10  H    0.000104  -0.000015  -0.000065   0.000074  -0.000001  -0.000008
    11  C    0.001867  -0.000132   0.000193  -0.000290  -0.000101   0.000076
    12  H   -0.000115  -0.000052  -0.000098  -0.000114   0.000019   0.000025
    13  H   -0.004129   0.000595   0.000327   0.000533  -0.000551  -0.000190
    14  H    0.000377   0.000028   0.000019   0.000015  -0.000027   0.000018
    15  C    0.000678  -0.000198   0.000454   0.000401  -0.000015  -0.000045
    16  O    0.000084   0.000008   0.000041  -0.000008  -0.000001   0.000002
    17  N    0.002277  -0.000748   0.001693   0.000406   0.000039  -0.000065
    18  H   -0.000113   0.000128  -0.000101  -0.000275   0.000001   0.000022
    19  C    0.008694  -0.000901  -0.001077  -0.000234  -0.000284   0.000186
    20  H    0.000257   0.000011  -0.000118  -0.000023  -0.000034   0.000016
    21  C   -0.001987  -0.000121  -0.000094  -0.000004   0.000020   0.000006
    22  H    0.000382  -0.000036  -0.000080   0.000000  -0.000019   0.000004
    23  H   -0.000071   0.000013  -0.000056  -0.000004  -0.000001  -0.000006
    24  H   -0.000112  -0.000033   0.000048   0.000012   0.000004   0.000003
    25  C    0.027023   0.004210  -0.004314   0.000773  -0.001067   0.000874
    26  O    0.002867  -0.000051   0.001844   0.000166   0.000093   0.000030
    27  N   -0.036314  -0.009332   0.015952   0.002321   0.001094   0.002806
    28  H    0.016765  -0.000849  -0.005415  -0.000859   0.001623  -0.000141
    29  C    0.170851  -0.091178  -0.059960   0.030282   0.012873  -0.046587
    30  H   -0.045397   0.033830  -0.010952   0.000977  -0.000386  -0.003606
    31  C   -0.007639  -0.013852   0.001268  -0.010759  -0.000905   0.016141
    32  H    0.004420   0.008835  -0.013376  -0.002739   0.000179  -0.000984
    33  H   -0.059793   0.003723   0.010184   0.002581   0.000124   0.001136
    34  H    0.025932  -0.003659   0.006662   0.000224  -0.000079   0.001125
    35  C   -0.142441   0.064384  -0.100409  -0.040281  -0.027860   0.018919
    36  O   -0.232689   0.008313  -0.003814  -0.000515   0.010715   0.017543
    37  N    7.363601   0.203463   0.302929  -0.013390  -0.037970  -0.078024
    38  H    0.203463   1.029895  -0.129384  -0.004183   0.007948   0.007825
    39  C    0.302929  -0.129384   4.111759   0.476049   0.334589   0.342552
    40  H   -0.013390  -0.004183   0.476049   0.944445  -0.108575  -0.128821
    41  H   -0.037970   0.007948   0.334589  -0.108575   1.050822  -0.150302
    42  H   -0.078024   0.007825   0.342552  -0.128821  -0.150302   1.106963
 Mulliken atomic charges:
              1
     1  H    0.041979
     2  C    0.371246
     3  H   -0.163972
     4  H    0.047464
     5  C    0.501468
     6  O   -0.872541
     7  N   -0.118155
     8  H   -0.095919
     9  C   -0.262166
    10  H   -0.193595
    11  C    0.947545
    12  H   -0.075273
    13  H   -0.129482
    14  H   -0.076638
    15  C    1.007795
    16  O   -0.907260
    17  N    0.203329
    18  H   -0.092623
    19  C   -0.579007
    20  H   -0.139032
    21  C    1.001280
    22  H   -0.080020
    23  H   -0.056314
    24  H   -0.088741
    25  C    0.841951
    26  O   -0.936584
    27  N   -0.353014
    28  H   -0.020175
    29  C   -0.282276
    30  H   -0.140203
    31  C    0.863514
    32  H   -0.047153
    33  H   -0.135774
    34  H   -0.051311
    35  C    1.161623
    36  O   -0.875267
    37  N   -0.473353
    38  H   -0.118660
    39  C    0.723134
    40  H   -0.148309
    41  H   -0.092043
    42  H   -0.107466
 Sum of Mulliken atomic charges =   0.00000
 Mulliken charges with hydrogens summed into heavy atoms:
              1
     2  C    0.296716
     5  C    0.501468
     6  O   -0.872541
     7  N   -0.214075
     9  C   -0.455761
    11  C    0.666151
    15  C    1.007795
    16  O   -0.907260
    17  N    0.110707
    19  C   -0.718039
    21  C    0.776206
    25  C    0.841951
    26  O   -0.936584
    27  N   -0.373189
    29  C   -0.422479
    31  C    0.629276
    35  C    1.161623
    36  O   -0.875267
    37  N   -0.592013
    39  C    0.375315
 Sum of Mulliken charges with hydrogens summed into heavy atoms =   0.00000
 Electronic spatial extent (au):  <R**2>=           8838.7402
 Charge=              0.0000 electrons
 Dipole moment (field-independent basis, Debye):
    X=              4.3645    Y=             -1.0872    Z=              0.1609  Tot=              4.5007
 Quadrupole moment (field-independent basis, Debye-Ang):
   XX=            -99.2530   YY=           -130.7273   ZZ=           -127.9345
   XY=            -21.1853   XZ=              8.5615   YZ=             18.1248
 Traceless Quadrupole moment (field-independent basis, Debye-Ang):
   XX=             20.0519   YY=            -11.4223   ZZ=             -8.6295
   XY=            -21.1853   XZ=              8.5615   YZ=             18.1248
 Octapole moment (field-independent basis, Debye-Ang**2):
  XXX=            120.3307  YYY=            -28.7515  ZZZ=              0.2193  XYY=             24.2573
  XXY=            -29.8191  XXZ=            -88.5458  XZZ=             18.8664  YZZ=             -3.7659
  YYZ=              7.0073  XYZ=             -8.5016
 Hexadecapole moment (field-independent basis, Debye-Ang**3):
 XXXX=          -7469.4613 YYYY=          -2457.7273 ZZZZ=           -497.5026 XXXY=           -504.3683
 XXXZ=            263.5269 YYYX=           -208.1710 YYYZ=             78.0172 ZZZX=             11.9626
 ZZZY=             12.5136 XXYY=          -1903.7263 XXZZ=          -1619.1362 YYZZ=           -537.8190
 XXYZ=            220.5117 YYXZ=             53.3473 ZZXY=            -51.1553
 N-N= 1.610094255429D+03 E-N=-5.527701213206D+03  KE= 9.830600569153D+02
 1\1\GINC-TACHIKOMA\SP\RMP2-FC\Aug-CC-pVDZ\C12H22N4O4\STEBOSS\18-Jan-20
 17\0\\#SP MP2/aug-cc-pVDZ\\Phi Psi fixed scan\\0,1\H,0,-7.0546,-0.3525
 ,0.2519\C,0,-6.3439,-0.7649,-0.4706\H,0,-6.2896,-0.1017,-1.3393\H,0,-6
 .732,-1.7374,-0.7903\C,0,-5.0058,-0.9734,0.2233\O,0,-4.8975,-1.6468,1.
 2446\N,0,-3.9374,-0.3697,-0.3688\H,0,-4.0354,0.2343,-1.1761\C,0,-2.605
 ,-0.4373,0.1977\H,0,-2.6978,-0.3711,1.2892\C,0,-1.8887,-1.7581,-0.1523
 \H,0,-1.7933,-1.8602,-1.2383\H,0,-0.8872,-1.8049,0.2893\H,0,-2.4824,-2
 .5907,0.2334\C,0,-1.8244,0.7697,-0.3429\O,0,-2.1797,1.3675,-1.3532\N,0
 ,-0.6817,1.0697,0.3488\H,0,-0.5976,0.6714,1.2766\C,0,0.1448,2.2359,0.0
 391\H,0,-0.304,2.6939,-0.8445\C,0,0.1631,3.2489,1.193\H,0,0.5716,2.799
 4,2.1066\H,0,0.7927,4.1016,0.9234\H,0,-0.8494,3.6086,1.4015\C,0,1.5879
 ,1.8725,-0.3578\O,0,2.2589,2.6388,-1.0416\N,0,2.0888,0.7376,0.2043\H,0
 ,1.4572,0.0163,0.5391\C,0,3.4011,0.2302,-0.1537\H,0,3.5895,0.4588,-1.2
 116\C,0,4.5094,0.8862,0.6899\H,0,4.3656,0.667,1.7528\H,0,5.5053,0.5369
 ,0.3943\H,0,4.469,1.9683,0.5408\C,0,3.3443,-1.2984,0.0351\O,0,2.375,-1
 .8432,0.5624\N,0,4.4324,-1.9771,-0.4095\H,0,5.1725,-1.4568,-0.859\C,0,
 4.5633,-3.4217,-0.3069\H,0,3.6762,-3.796,0.2047\H,0,4.6263,-3.883,-1.2
 99\H,0,5.4544,-3.6945,0.2695\\Version=EM64L-G09RevA.02\State=1-A\HF=-9
 84.6967496\MP2=-987.8891509\RMSD=3.339e-09\PG=C01 [X(C12H22N4O4)]\\@


 WE MIGHT AS WELL ATTEMPT TO INTRODUCE A NEW PLANET 
 INTO THE SOLAR SYSTEM, OR TO ANNIHILATE ONE ALREADYIN EXISTENCE, 
 AS TO CREATE OR DESTROY A PARTICLE OF HYDROGEN.
 ALL THE CHANGES WE CAN PRODUCE CONSIST IN SEPARATING PARTICLES
 THAT ARE IN A STATE OF ... COMBINATION, AND JOINING 
 THOSE THAT WERE PREVIOUSLY AT A DISTANCE.

                                    -- JOHN DALTON, 1810
 Job cpu time:  0 days 13 hours 49 minutes 14.9 seconds.
 File lengths (MBytes):  RWF= 156906 Int=      0 D2E=      0 Chk=     19 Scr=      1
 Normal termination of Gaussian 09 at Wed Jan 18 04:44:40 2017.
